 argument  1 = td-dimer.nw



============================== echo of input deck ==============================
title "Dimer Excitation"
echo
memory 1000 mb
scratch_dir /home/ep3/Documents/NWChem/Dimer/Scratch

start excitation

geometry units bohr
  C        0.0000000000      1.2651715494      5.6691779657
  C        0.0000000000     -1.2651715494      5.6691779657
  H       -1.6146914887      2.3323319404      5.6691779657
  H        1.6146914887      2.3323319404      5.6691779657
  H       -1.6146914887     -2.3323319404      5.6691779657
  H        1.6146914887     -2.3323319404      5.6691779657
  C        0.0000000000     -1.2387153855     -1.8897259886
  C        0.0000000000      1.2387153855     -1.8897259886
  F        2.0713286561     -2.6253963159     -1.8897259886
  F       -2.0713286561     -2.6253963159     -1.8897259886
  F       -2.0713286561      2.6253963159     -1.8897259886
  F        2.0713286561      2.6253963159     -1.8897259886
end

basis
  * library 6-31g*
end

dft
  xc xcamb88 1.00 lyp 0.81 vwn_5 0.19 hfexch 1.00
     cam 0.33 cam_alpha 0.19 cam_beta 0.46
  direct
end

tddft
  nroots 100
  singlet
  notriplet
end

task tddft energy
================================================================================


                                         
                                         


              Northwest Computational Chemistry Package (NWChem) 6.6
              ------------------------------------------------------


                    Environmental Molecular Sciences Laboratory
                       Pacific Northwest National Laboratory
                                Richland, WA 99352

                              Copyright (c) 1994-2015
                       Pacific Northwest National Laboratory
                            Battelle Memorial Institute

             NWChem is an open-source computational chemistry package
                        distributed under the terms of the
                      Educational Community License (ECL) 2.0
             A copy of the license is included with this distribution
                              in the LICENSE.TXT file

                                  ACKNOWLEDGMENT
                                  --------------

            This software and its documentation were developed at the
            EMSL at Pacific Northwest National Laboratory, a multiprogram
            national laboratory, operated for the U.S. Department of Energy
            by Battelle under Contract Number DE-AC05-76RL01830. Support
            for this work was provided by the Department of Energy Office
            of Biological and Environmental Research, Office of Basic
            Energy Sciences, and the Office of Advanced Scientific Computing.


           Job information
           ---------------

    hostname        = ep3
    program         = nwchem
    date            = Thu Dec  7 16:58:12 2017

    compiled        = Mon_Feb_15_08:24:17_2016
    source          = /build/nwchem-MF0R1k/nwchem-6.6+r27746
    nwchem branch   = 6.6
    nwchem revision = 27746
    ga revision     = 10594
    input           = td-dimer.nw
    prefix          = excitation.
    data base       = ./excitation.db
    status          = startup
    nproc           =        1
    time left       =     -1s



           Memory information
           ------------------

    heap     =   32768000 doubles =    250.0 Mbytes
    stack    =   32767997 doubles =    250.0 Mbytes
    global   =   65536000 doubles =    500.0 Mbytes (distinct from heap & stack)
    total    =  131071997 doubles =   1000.0 Mbytes
    verify   = yes
    hardfail = no 


           Directory information
           ---------------------

  0 permanent = .
  0 scratch   = /home/ep3/Documents/NWChem/Dimer/Scratch




                                NWChem Input Module
                                -------------------


                                 Dimer Excitation
                                 ----------------
 C2V symmetry detected

          ------
          auto-z
          ------
  autoz: The atoms group into disjoint clusters
 cluster   1:    1    2    3    4    5    6
 cluster   2:    7    8    9   10   11   12
 Connecting clusters   1   2 via atoms    1    8 r = 4.00
  autoz: regenerating connections with new bonds


                             Geometry "geometry" -> ""
                             -------------------------

 Output coordinates in a.u. (scale by  1.000000000 to convert to a.u.)

  No.       Tag          Charge          X              Y              Z
 ---- ---------------- ---------- -------------- -------------- --------------
    1 C                    6.0000     0.00000000     1.26517155     5.66917797
    2 C                    6.0000     0.00000000    -1.26517155     5.66917797
    3 H                    1.0000    -1.61469149     2.33233194     5.66917797
    4 H                    1.0000     1.61469149     2.33233194     5.66917797
    5 H                    1.0000    -1.61469149    -2.33233194     5.66917797
    6 H                    1.0000     1.61469149    -2.33233194     5.66917797
    7 C                    6.0000     0.00000000    -1.23871539    -1.88972599
    8 C                    6.0000     0.00000000     1.23871539    -1.88972599
    9 F                    9.0000     2.07132866    -2.62539632    -1.88972599
   10 F                    9.0000    -2.07132866    -2.62539632    -1.88972599
   11 F                    9.0000    -2.07132866     2.62539632    -1.88972599
   12 F                    9.0000     2.07132866     2.62539632    -1.88972599

      Atomic Mass 
      ----------- 

      C                 12.000000
      H                  1.007825
      F                 18.998400


 Effective nuclear repulsion energy (a.u.)     371.7399353041

            Nuclear Dipole moment (a.u.) 
            ----------------------------
        X                 Y               Z
 ---------------- ---------------- ----------------
     0.0000000000     0.0000000000    -0.0000000000

      Symmetry information
      --------------------

 Group name             C2v       
 Group number             16
 Group order               4
 No. of unique centers     4

      Symmetry unique atoms

     1    3    7    9



                                Z-matrix (autoz)
                                -------- 

 Units are Angstrom for bonds and degrees for angles

      Type          Name      I     J     K     L     M      Value
      ----------- --------  ----- ----- ----- ----- ----- ----------
    1 Stretch                  1     8                       4.00002
    2 Stretch                  1     2                       1.33900
    3 Stretch                  1     3                       1.02421
    4 Stretch                  1     4                       1.02421
    5 Stretch                  2     5                       1.02421
    6 Stretch                  2     6                       1.02421
    7 Stretch                  7     8                       1.31100
    8 Stretch                  7     9                       1.31905
    9 Stretch                  7    10                       1.31905
   10 Stretch                  8    11                       1.31905
   11 Stretch                  8    12                       1.31905
   12 Bend                     1     8     7                90.20053
   13 Bend                     1     8    11                89.88844
   14 Bend                     1     8    12                89.88844
   15 Bend                     1     2     5               123.46098
   16 Bend                     1     2     6               123.46098
   17 Bend                     2     1     8                89.79947
   18 Bend                     2     1     3               123.46098
   19 Bend                     2     1     4               123.46098
   20 Bend                     3     1     8                90.11057
   21 Bend                     3     1     4               113.07804
   22 Bend                     4     1     8                90.11057
   23 Bend                     5     2     6               113.07804
   24 Bend                     7     8    11               123.80090
   25 Bend                     7     8    12               123.80090
   26 Bend                     8     7     9               123.80090
   27 Bend                     8     7    10               123.80090
   28 Bend                     9     7    10               112.39819
   29 Bend                    11     8    12               112.39819
   30 Torsion                  1     8     7     9         -90.00000
   31 Torsion                  1     8     7    10          90.00000
   32 Torsion                  2     1     8     7           0.00000
   33 Torsion                  2     1     8    11         123.80074
   34 Torsion                  2     1     8    12        -123.80074
   35 Torsion                  3     1     8     7        -123.46082
   36 Torsion                  3     1     8    11           0.33992
   37 Torsion                  3     1     8    12         112.73844
   38 Torsion                  3     1     2     5          -0.00000
   39 Torsion                  3     1     2     6         180.00000
   40 Torsion                  4     1     8     7         123.46082
   41 Torsion                  4     1     8    11        -112.73844
   42 Torsion                  4     1     8    12          -0.33992
   43 Torsion                  4     1     2     5         180.00000
   44 Torsion                  4     1     2     6           0.00000
   45 Torsion                  5     2     1     8         -90.00000
   46 Torsion                  6     2     1     8          90.00000
   47 Torsion                  9     7     8    11         180.00000
   48 Torsion                  9     7     8    12           0.00000
   49 Torsion                 10     7     8    11           0.00000
   50 Torsion                 10     7     8    12         180.00000


            XYZ format geometry
            -------------------
    12
 geometry
 C                     0.00000000     0.66950000     3.00000000
 C                     0.00000000    -0.66950000     3.00000000
 H                    -0.85445800     1.23421700     3.00000000
 H                     0.85445800     1.23421700     3.00000000
 H                    -0.85445800    -1.23421700     3.00000000
 H                     0.85445800    -1.23421700     3.00000000
 C                     0.00000000    -0.65550000    -1.00000000
 C                     0.00000000     0.65550000    -1.00000000
 F                     1.09610000    -1.38930000    -1.00000000
 F                    -1.09610000    -1.38930000    -1.00000000
 F                    -1.09610000     1.38930000    -1.00000000
 F                     1.09610000     1.38930000    -1.00000000

 ==============================================================================
                                internuclear distances
 ------------------------------------------------------------------------------
       center one      |      center two      | atomic units |       a.u.
 ------------------------------------------------------------------------------
    2 C                |   1 C                |     2.53034  |     2.53034
    3 H                |   1 C                |     1.93547  |     1.93547
    4 H                |   1 C                |     1.93547  |     1.93547
    5 H                |   2 C                |     1.93547  |     1.93547
    6 H                |   2 C                |     1.93547  |     1.93547
    8 C                |   7 C                |     2.47743  |     2.47743
    9 F                |   7 C                |     2.49265  |     2.49265
   10 F                |   7 C                |     2.49265  |     2.49265
   11 F                |   8 C                |     2.49265  |     2.49265
   12 F                |   8 C                |     2.49265  |     2.49265
 ------------------------------------------------------------------------------
                         number of included internuclear distances:         10
 ==============================================================================



 ==============================================================================
                                 internuclear angles
 ------------------------------------------------------------------------------
        center 1       |       center 2       |       center 3       |  degrees
 ------------------------------------------------------------------------------
    2 C                |   1 C                |   3 H                |   123.46
    2 C                |   1 C                |   4 H                |   123.46
    3 H                |   1 C                |   4 H                |   113.08
    1 C                |   2 C                |   5 H                |   123.46
    1 C                |   2 C                |   6 H                |   123.46
    5 H                |   2 C                |   6 H                |   113.08
    8 C                |   7 C                |   9 F                |   123.80
    8 C                |   7 C                |  10 F                |   123.80
    9 F                |   7 C                |  10 F                |   112.40
    7 C                |   8 C                |  11 F                |   123.80
    7 C                |   8 C                |  12 F                |   123.80
   11 F                |   8 C                |  12 F                |   112.40
 ------------------------------------------------------------------------------
                            number of included internuclear angles:         12
 ==============================================================================





 Summary of "ao basis" -> "" (cartesian)
 ------------------------------------------------------------------------------
       Tag                 Description            Shells   Functions and Types
 ---------------- ------------------------------  ------  ---------------------
 *                           6-31g*                   on all atoms 



                                 NWChem DFT Module
                                 -----------------


                                 Dimer Excitation


                      Basis "ao basis" -> "ao basis" (cartesian)
                      -----
  C (Carbon)
  ----------
            Exponent  Coefficients 
       -------------- ---------------------------------------------------------
  1 S  3.04752490E+03  0.001835
  1 S  4.57369510E+02  0.014037
  1 S  1.03948690E+02  0.068843
  1 S  2.92101550E+01  0.232184
  1 S  9.28666300E+00  0.467941
  1 S  3.16392700E+00  0.362312

  2 S  7.86827240E+00 -0.119332
  2 S  1.88128850E+00 -0.160854
  2 S  5.44249300E-01  1.143456

  3 P  7.86827240E+00  0.068999
  3 P  1.88128850E+00  0.316424
  3 P  5.44249300E-01  0.744308

  4 S  1.68714400E-01  1.000000

  5 P  1.68714400E-01  1.000000

  6 D  8.00000000E-01  1.000000

  H (Hydrogen)
  ------------
            Exponent  Coefficients 
       -------------- ---------------------------------------------------------
  1 S  1.87311370E+01  0.033495
  1 S  2.82539370E+00  0.234727
  1 S  6.40121700E-01  0.813757

  2 S  1.61277800E-01  1.000000

  F (Fluorine)
  ------------
            Exponent  Coefficients 
       -------------- ---------------------------------------------------------
  1 S  7.00171309E+03  0.001820
  1 S  1.05136609E+03  0.013916
  1 S  2.39285690E+02  0.068405
  1 S  6.73974453E+01  0.233186
  1 S  2.15199573E+01  0.471267
  1 S  7.40310130E+00  0.356619

  2 S  2.08479528E+01 -0.108507
  2 S  4.80830834E+00 -0.146452
  2 S  1.34406986E+00  1.128689

  3 P  2.08479528E+01  0.071629
  3 P  4.80830834E+00  0.345912
  3 P  1.34406986E+00  0.722470

  4 S  3.58151393E-01  1.000000

  5 P  3.58151393E-01  1.000000

  6 D  8.00000000E-01  1.000000



 Summary of "ao basis" -> "ao basis" (cartesian)
 ------------------------------------------------------------------------------
       Tag                 Description            Shells   Functions and Types
 ---------------- ------------------------------  ------  ---------------------
 C                           6-31g*                  6       15   3s2p1d
 H                           6-31g*                  2        2   2s
 F                           6-31g*                  6       15   3s2p1d




 Summary of "ao basis" -> "ao basis" (cartesian)
 ------------------------------------------------------------------------------
       Tag                 Description            Shells   Functions and Types
 ---------------- ------------------------------  ------  ---------------------
 C                           6-31g*                  6       15   3s2p1d
 H                           6-31g*                  2        2   2s
 F                           6-31g*                  6       15   3s2p1d


      Symmetry analysis of basis
      --------------------------

        a1         39
        a2         25
        b1         25
        b2         39

  int_init: cando_txs set to always be  F
  Caching 1-el integrals 

            General Information
            -------------------
          SCF calculation type: DFT
          Wavefunction type:  closed shell.
          No. of atoms     :    12
          No. of electrons :    64
           Alpha electrons :    32
            Beta electrons :    32
          Charge           :     0
          Spin multiplicity:     1
          Use of symmetry is: off; symmetry adaption is: on 
          Maximum number of iterations:  30
          This is a Direct SCF calculation.
          AO basis - number of functions:   128
                     number of shells:    56
          Convergence on energy requested: 1.00D-06
          Convergence on density requested: 1.00D-05
          Convergence on gradient requested: 5.00D-04

              XC Information
              --------------
                     Hartree-Fock (Exact) Exchange  1.000          
                   CAM-Becke88 Exchange Functional  1.000          
                      VWN V Correlation Functional  0.190 local    
              Lee-Yang-Parr Correlation Functional  0.810          

           Range-Separation Parameters        
           ---------------------------
           Alpha           :  0.19
           Beta            :  0.46
           Gamma           :  0.33
           Short-Range HF  :     F

             Grid Information
             ----------------
          Grid used for XC integration:  medium    
          Radial quadrature: Mura-Knowles        
          Angular quadrature: Lebedev. 
          Tag              B.-S. Rad. Rad. Pts. Rad. Cut. Ang. Pts.
          ---              ---------- --------- --------- ---------
          C                   0.70       49          11.0       434
          H                   0.35       45          11.0       434
          F                   0.50       49          12.0       434
          Grid pruning is: on 
          Number of quadrature shells:   572
          Spatial weights used:  Erf1

          Convergence Information
          -----------------------
          Convergence aids based upon iterative change in 
          total energy or number of iterations. 
          Levelshifting, if invoked, occurs when the 
          HOMO/LUMO gap drops below (HL_TOL): 1.00D-02
          DIIS, if invoked, will attempt to extrapolate 
          using up to (NFOCK): 10 stored Fock matrices.

                    Damping( 0%)  Levelshifting(0.5)       DIIS
                  --------------- ------------------- ---------------
          dE  on:    start            ASAP                start   
          dE off:    2 iters         30 iters            30 iters 


      Screening Tolerance Information
      -------------------------------
          Density screening/tol_rho: 1.00D-10
          AO Gaussian exp screening on grid/accAOfunc:  14
          CD Gaussian exp screening on grid/accCDfunc:  20
          XC Gaussian exp screening on grid/accXCfunc:  20
          Schwarz screening/accCoul: 1.00D-08


      Superposition of Atomic Density Guess
      -------------------------------------

 Sum of atomic energies:        -550.12327484

      Non-variational initial energy
      ------------------------------

 Total energy =    -553.305187
 1-e energy   =   -1500.869186
 2-e energy   =     575.824064
 HOMO         =      -0.174605
 LUMO         =       0.004996


      Symmetry analysis of molecular orbitals - initial
      -------------------------------------------------

  Numbering of irreducible representations: 

     1 a1          2 a2          3 b1          4 b2      

  Orbital symmetries:

     1 a1          2 b2          3 b1          4 a2          5 a1      
     6 b2          7 a1          8 b2          9 a1         10 b2      
    11 b1         12 a2         13 a1         14 a1         15 b2      
    16 b2         17 b1         18 a1         19 a2         20 a1      
    21 b2         22 b2         23 b1         24 b1         25 a2      
    26 b1         27 a2         28 a1         29 a1         30 a2      
    31 a1         32 a1         33 b2         34 b1         35 b2      
    36 a1         37 b2         38 b1         39 b2         40 a1      
    41 a2         42 b2      

   Time after variat. SCF:      1.1
   Time prior to 1st pass:      1.1

 Grid_pts file          = /home/ep3/Documents/NWChem/Dimer/Scratch/excitation.gridpts.0
 Record size in doubles =  12289        No. of grid_pts per rec  =   3070
 Max. records in memory =     90        Max. recs in file   =   1814175


 !! scf_movecs_sym_adapt:   14 vectors were symmetry contaminated

  Symmetry fudging

           Memory utilization after 1st SCF pass: 
           Heap Space remaining (MW):       31.66            31660672
          Stack Space remaining (MW):       32.77            32767020

   convergence    iter        energy       DeltaE   RMS-Dens  Diis-err    time
 ---------------- ----- ----------------- --------- --------- ---------  ------
 d= 0,ls=0.0,diis     1   -553.7067971414 -9.25D+02  1.26D-02  1.87D+00    10.1

 !! scf_movecs_sym_adapt:   17 vectors were symmetry contaminated

  Symmetry fudging
 d= 0,ls=0.0,diis     2   -553.7326196555 -2.58D-02  5.49D-03  1.87D+00    18.9

 !! scf_movecs_sym_adapt:    7 vectors were symmetry contaminated

  Symmetry fudging

 !! scf_movecs_sym_adapt:    2 vectors were symmetry contaminated

 d= 0,ls=0.0,diis     3   -553.8882653109 -1.56D-01  1.18D-03  7.58D-02    29.2

 !! scf_movecs_sym_adapt:    4 vectors were symmetry contaminated

  Symmetry fudging
 d= 0,ls=0.0,diis     4   -553.8935388053 -5.27D-03  2.20D-04  3.01D-03    39.6
 d= 0,ls=0.0,diis     5   -553.8937915125 -2.53D-04  2.65D-05  1.01D-05    50.4

 !! scf_movecs_sym_adapt:    4 vectors were symmetry contaminated

  Symmetry fudging
  Resetting Diis
 d= 0,ls=0.0,diis     6   -553.8937932507 -1.74D-06  5.27D-06  6.09D-07    61.1

 !! scf_movecs_sym_adapt:    4 vectors were symmetry contaminated

  Symmetry fudging
 d= 0,ls=0.0,diis     7   -553.8937933266 -7.58D-08  2.01D-06  5.24D-08    71.6


         Total DFT energy =     -553.893793326557
      One electron energy =    -1503.155481374399
           Coulomb energy =      642.435593476963
    Exchange-Corr. energy =      -64.913840733247
 Nuclear repulsion energy =      371.739935304126

 Numeric. integr. density =       63.999991354909

     Total iterative time =     70.6s



                  Occupations of the irreducible representations
                  ----------------------------------------------

                     irrep           alpha         beta
                     --------     --------     --------
                     a1               12.0         12.0
                     a2                6.0          6.0
                     b1                6.0          6.0
                     b2                8.0          8.0


                       DFT Final Molecular Orbital Analysis
                       ------------------------------------

 Vector    8  Occ=2.000000D+00  E=-1.024811D+01  Symmetry=b2
              MO Center=  8.6D-22,  1.4D-09,  3.0D+00, r^2= 4.8D-01
   Bfn.  Coefficient  Atom+Function         Bfn.  Coefficient  Atom+Function  
  ----- ------------  ---------------      ----- ------------  ---------------
     1      0.702056   1 C  s                16     -0.702056   2 C  s         

 Vector    9  Occ=2.000000D+00  E=-1.383939D+00  Symmetry=a1
              MO Center=  5.4D-11,  1.9D-10, -1.0D+00, r^2= 2.7D+00
   Bfn.  Coefficient  Atom+Function         Bfn.  Coefficient  Atom+Function  
  ----- ------------  ---------------      ----- ------------  ---------------
    70      0.232263   9 F  s                85      0.232263  10 F  s         
   100      0.232263  11 F  s               115      0.232263  12 F  s         
    74      0.211030   9 F  s                89      0.211030  10 F  s         
   104      0.211030  11 F  s               119      0.211030  12 F  s         

 Vector   10  Occ=2.000000D+00  E=-1.368873D+00  Symmetry=b2
              MO Center= -1.6D-17, -1.9D-10, -1.0D+00, r^2= 2.9D+00
   Bfn.  Coefficient  Atom+Function         Bfn.  Coefficient  Atom+Function  
  ----- ------------  ---------------      ----- ------------  ---------------
    70      0.240230   9 F  s                85      0.240230  10 F  s         
   100     -0.240230  11 F  s               115     -0.240230  12 F  s         
    74      0.219878   9 F  s                89      0.219878  10 F  s         
   104     -0.219878  11 F  s               119     -0.219878  12 F  s         

 Vector   11  Occ=2.000000D+00  E=-1.323693D+00  Symmetry=b1
              MO Center= -6.0D-11,  2.3D-10, -1.0D+00, r^2= 3.0D+00
   Bfn.  Coefficient  Atom+Function         Bfn.  Coefficient  Atom+Function  
  ----- ------------  ---------------      ----- ------------  ---------------
    70      0.253774   9 F  s                85     -0.253774  10 F  s         
   100     -0.253774  11 F  s               115      0.253774  12 F  s         
    74      0.235895   9 F  s                89     -0.235895  10 F  s         
   104     -0.235896  11 F  s               119      0.235896  12 F  s         

 Vector   12  Occ=2.000000D+00  E=-1.312261D+00  Symmetry=a2
              MO Center=  1.1D-12, -2.4D-10, -1.0D+00, r^2= 3.1D+00
   Bfn.  Coefficient  Atom+Function         Bfn.  Coefficient  Atom+Function  
  ----- ------------  ---------------      ----- ------------  ---------------
    74      0.258097   9 F  s                89     -0.258097  10 F  s         
   104      0.258097  11 F  s               119     -0.258097  12 F  s         
    70      0.255815   9 F  s                85     -0.255815  10 F  s         
   100      0.255815  11 F  s               115     -0.255815  12 F  s         

 Vector   13  Occ=2.000000D+00  E=-8.848862D-01  Symmetry=a1
              MO Center=  5.7D-12,  2.1D-18, -1.0D+00, r^2= 1.5D+00
   Bfn.  Coefficient  Atom+Function         Bfn.  Coefficient  Atom+Function  
  ----- ------------  ---------------      ----- ------------  ---------------
    40      0.298564   7 C  s                55      0.298564   8 C  s         
    42      0.214828   7 C  py               57     -0.214828   8 C  py        

 Vector   14  Occ=2.000000D+00  E=-8.436922D-01  Symmetry=a1
              MO Center= -2.1D-14, -8.7D-18,  3.0D+00, r^2= 1.2D+00
   Bfn.  Coefficient  Atom+Function         Bfn.  Coefficient  Atom+Function  
  ----- ------------  ---------------      ----- ------------  ---------------
     2      0.306428   1 C  s                17      0.306428   2 C  s         
     6      0.229722   1 C  s                21      0.229722   2 C  s         
     1     -0.160713   1 C  s                16     -0.160713   2 C  s         

 Vector   15  Occ=2.000000D+00  E=-7.290954D-01  Symmetry=b2
              MO Center= -5.5D-12,  7.0D-11, -1.0D+00, r^2= 3.5D+00
   Bfn.  Coefficient  Atom+Function         Bfn.  Coefficient  Atom+Function  
  ----- ------------  ---------------      ----- ------------  ---------------
    71      0.232740   9 F  px               86     -0.232740  10 F  px        
   101      0.232740  11 F  px              116     -0.232740  12 F  px        
    40     -0.192179   7 C  s                55      0.192179   8 C  s         
    44     -0.184445   7 C  s                59      0.184445   8 C  s         
    74      0.166649   9 F  s                89      0.166649  10 F  s         

 Vector   16  Occ=2.000000D+00  E=-6.860474D-01  Symmetry=a1
              MO Center=  2.3D-12, -1.0D-10, -1.0D+00, r^2= 3.0D+00
   Bfn.  Coefficient  Atom+Function         Bfn.  Coefficient  Atom+Function  
  ----- ------------  ---------------      ----- ------------  ---------------
    42      0.279540   7 C  py               57     -0.279540   8 C  py        
    71      0.257704   9 F  px               86     -0.257704  10 F  px        
   101     -0.257704  11 F  px              116      0.257704  12 F  px        
    75      0.150719   9 F  px               90     -0.150719  10 F  px        
   105     -0.150719  11 F  px              120      0.150719  12 F  px        

 Vector   17  Occ=2.000000D+00  E=-6.777543D-01  Symmetry=b2
              MO Center=  2.3D-11, -4.3D-12,  3.0D+00, r^2= 2.1D+00
   Bfn.  Coefficient  Atom+Function         Bfn.  Coefficient  Atom+Function  
  ----- ------------  ---------------      ----- ------------  ---------------
     2      0.248278   1 C  s                17     -0.248278   2 C  s         
     6      0.206368   1 C  s                21     -0.206368   2 C  s         
     4      0.176350   1 C  py               19      0.176350   2 C  py        

 Vector   18  Occ=2.000000D+00  E=-6.761996D-01  Symmetry=b1
              MO Center= -1.5D-12, -4.2D-12, -1.0D+00, r^2= 3.3D+00
   Bfn.  Coefficient  Atom+Function         Bfn.  Coefficient  Atom+Function  
  ----- ------------  ---------------      ----- ------------  ---------------
    41      0.255577   7 C  px               56      0.255577   8 C  px        
    72      0.216036   9 F  py               87     -0.216036  10 F  py        
   102      0.216036  11 F  py              117     -0.216036  12 F  py        
    71     -0.161521   9 F  px               86     -0.161521  10 F  px        
   101     -0.161521  11 F  px              116     -0.161521  12 F  px        

 Vector   19  Occ=2.000000D+00  E=-6.281964D-01  Symmetry=a2
              MO Center= -1.5D-11,  4.4D-12, -1.0D+00, r^2= 3.5D+00
   Bfn.  Coefficient  Atom+Function         Bfn.  Coefficient  Atom+Function  
  ----- ------------  ---------------      ----- ------------  ---------------
    41      0.229084   7 C  px               56     -0.229084   8 C  px        
    72      0.213567   9 F  py               87     -0.213567  10 F  py        
   102     -0.213567  11 F  py              117      0.213567  12 F  py        
    71     -0.210485   9 F  px               86     -0.210485  10 F  px        
   101      0.210485  11 F  px              116      0.210485  12 F  px        

 Vector   20  Occ=2.000000D+00  E=-6.259917D-01  Symmetry=a1
              MO Center= -3.8D-10,  4.7D-10, -1.0D+00, r^2= 2.7D+00
   Bfn.  Coefficient  Atom+Function         Bfn.  Coefficient  Atom+Function  
  ----- ------------  ---------------      ----- ------------  ---------------
    73      0.254790   9 F  pz               88      0.254790  10 F  pz        
   103      0.254790  11 F  pz              118      0.254790  12 F  pz        
    43      0.245755   7 C  pz               58      0.245755   8 C  pz        
    77      0.160792   9 F  pz               92      0.160792  10 F  pz        
   107      0.160792  11 F  pz              122      0.160792  12 F  pz        

 Vector   21  Occ=2.000000D+00  E=-5.782746D-01  Symmetry=b2
              MO Center= -1.1D-16, -4.9D-10, -1.0D+00, r^2= 3.2D+00
   Bfn.  Coefficient  Atom+Function         Bfn.  Coefficient  Atom+Function  
  ----- ------------  ---------------      ----- ------------  ---------------
    73      0.307071   9 F  pz               88      0.307071  10 F  pz        
   103     -0.307071  11 F  pz              118     -0.307071  12 F  pz        
    77      0.196716   9 F  pz               92      0.196716  10 F  pz        
   107     -0.196716  11 F  pz              122     -0.196716  12 F  pz        

 Vector   22  Occ=2.000000D+00  E=-5.509137D-01  Symmetry=b2
              MO Center=  1.3D-10,  1.2D-10, -1.0D+00, r^2= 3.5D+00
   Bfn.  Coefficient  Atom+Function         Bfn.  Coefficient  Atom+Function  
  ----- ------------  ---------------      ----- ------------  ---------------
    72      0.303881   9 F  py               87      0.303881  10 F  py        
   102      0.303881  11 F  py              117      0.303881  12 F  py        
    44      0.262407   7 C  s                59     -0.262407   8 C  s         
    46      0.210964   7 C  py               61      0.210964   8 C  py        
    76      0.192439   9 F  py               91      0.192439  10 F  py        

 Vector   23  Occ=2.000000D+00  E=-5.444644D-01  Symmetry=b1
              MO Center=  2.5D-11,  9.7D-15,  3.0D+00, r^2= 1.8D+00
   Bfn.  Coefficient  Atom+Function         Bfn.  Coefficient  Atom+Function  
  ----- ------------  ---------------      ----- ------------  ---------------
     3      0.337715   1 C  px               18      0.337715   2 C  px        
    31     -0.156285   3 H  s                33      0.156285   4 H  s         
    35     -0.156285   5 H  s                37      0.156285   6 H  s         

 Vector   24  Occ=2.000000D+00  E=-5.251497D-01  Symmetry=b1
              MO Center=  3.3D-10,  1.8D-16, -1.0D+00, r^2= 3.5D+00
   Bfn.  Coefficient  Atom+Function         Bfn.  Coefficient  Atom+Function  
  ----- ------------  ---------------      ----- ------------  ---------------
    73      0.337073   9 F  pz               88     -0.337073  10 F  pz        
   103     -0.337073  11 F  pz              118      0.337073  12 F  pz        
    77      0.235554   9 F  pz               92     -0.235554  10 F  pz        
   107     -0.235554  11 F  pz              122      0.235554  12 F  pz        

 Vector   25  Occ=2.000000D+00  E=-5.194383D-01  Symmetry=a2
              MO Center= -3.5D-13, -2.3D-13, -1.0D+00, r^2= 3.5D+00
   Bfn.  Coefficient  Atom+Function         Bfn.  Coefficient  Atom+Function  
  ----- ------------  ---------------      ----- ------------  ---------------
    73      0.339822   9 F  pz               88     -0.339822  10 F  pz        
   103      0.339822  11 F  pz              118     -0.339822  12 F  pz        
    77      0.234607   9 F  pz               92     -0.234607  10 F  pz        
   107      0.234607  11 F  pz              122     -0.234607  12 F  pz        

 Vector   26  Occ=2.000000D+00  E=-5.139545D-01  Symmetry=b1
              MO Center=  4.6D-13,  1.5D-12, -1.0D+00, r^2= 3.5D+00
   Bfn.  Coefficient  Atom+Function         Bfn.  Coefficient  Atom+Function  
  ----- ------------  ---------------      ----- ------------  ---------------
    71      0.279947   9 F  px               86      0.279947  10 F  px        
   101      0.279947  11 F  px              116      0.279947  12 F  px        
    72      0.195530   9 F  py               87     -0.195530  10 F  py        
   102      0.195530  11 F  py              117     -0.195530  12 F  py        
    75      0.191235   9 F  px               90      0.191235  10 F  px        

 Vector   27  Occ=2.000000D+00  E=-5.108699D-01  Symmetry=a1
              MO Center=  8.5D-12, -9.9D-11, -1.0D+00, r^2= 3.2D+00
   Bfn.  Coefficient  Atom+Function         Bfn.  Coefficient  Atom+Function  
  ----- ------------  ---------------      ----- ------------  ---------------
    72      0.312147   9 F  py               87      0.312147  10 F  py        
   102     -0.312147  11 F  py              117     -0.312147  12 F  py        
    76      0.216072   9 F  py               91      0.216072  10 F  py        
   106     -0.216072  11 F  py              121     -0.216072  12 F  py        
    42     -0.201375   7 C  py               57      0.201375   8 C  py        

 Vector   28  Occ=2.000000D+00  E=-4.976607D-01  Symmetry=a1
              MO Center= -1.3D-15,  2.3D-13,  3.0D+00, r^2= 1.6D+00
   Bfn.  Coefficient  Atom+Function         Bfn.  Coefficient  Atom+Function  
  ----- ------------  ---------------      ----- ------------  ---------------
     4      0.421176   1 C  py               19     -0.421176   2 C  py        

 Vector   29  Occ=2.000000D+00  E=-4.945795D-01  Symmetry=a2
              MO Center= -1.1D-10, -5.2D-13, -1.0D+00, r^2= 3.5D+00
   Bfn.  Coefficient  Atom+Function         Bfn.  Coefficient  Atom+Function  
  ----- ------------  ---------------      ----- ------------  ---------------
    71      0.252553   9 F  px               86      0.252553  10 F  px        
   101     -0.252553  11 F  px              116     -0.252553  12 F  px        
    72      0.244451   9 F  py               87     -0.244451  10 F  py        
   102     -0.244451  11 F  py              117      0.244451  12 F  py        
    75      0.167832   9 F  px               90      0.167832  10 F  px        

 Vector   30  Occ=2.000000D+00  E=-4.287101D-01  Symmetry=a2
              MO Center= -2.3D-11,  9.2D-16,  3.0D+00, r^2= 2.2D+00
   Bfn.  Coefficient  Atom+Function         Bfn.  Coefficient  Atom+Function  
  ----- ------------  ---------------      ----- ------------  ---------------
     3      0.324912   1 C  px               18     -0.324912   2 C  px        
    31     -0.195607   3 H  s                33      0.195607   4 H  s         
    35      0.195607   5 H  s                37     -0.195607   6 H  s         
    32     -0.190044   3 H  s                34      0.190044   4 H  s         
    36      0.190044   5 H  s                38     -0.190044   6 H  s         

 Vector   31  Occ=2.000000D+00  E=-3.306680D-01  Symmetry=a1
              MO Center= -9.4D-11,  1.0D-09,  2.7D+00, r^2= 2.5D+00
   Bfn.  Coefficient  Atom+Function         Bfn.  Coefficient  Atom+Function  
  ----- ------------  ---------------      ----- ------------  ---------------
     5      0.381218   1 C  pz               20      0.381218   2 C  pz        
     9      0.276420   1 C  pz               24      0.276420   2 C  pz        

 Vector   32  Occ=2.000000D+00  E=-3.105416D-01  Symmetry=a1
              MO Center=  1.6D-17, -1.6D-15, -7.0D-01, r^2= 3.1D+00
   Bfn.  Coefficient  Atom+Function         Bfn.  Coefficient  Atom+Function  
  ----- ------------  ---------------      ----- ------------  ---------------
    43      0.391197   7 C  pz               58      0.391197   8 C  pz        
    73     -0.221761   9 F  pz               88     -0.221761  10 F  pz        
   103     -0.221761  11 F  pz              118     -0.221761  12 F  pz        
    47      0.207737   7 C  pz               62      0.207737   8 C  pz        
    77     -0.180044   9 F  pz               92     -0.180044  10 F  pz        

 Vector   33  Occ=0.000000D+00  E= 6.431098D-02  Symmetry=b2
              MO Center=  2.8D-13, -1.1D-09,  2.8D+00, r^2= 2.7D+00
   Bfn.  Coefficient  Atom+Function         Bfn.  Coefficient  Atom+Function  
  ----- ------------  ---------------      ----- ------------  ---------------
     9      0.628106   1 C  pz               24     -0.628106   2 C  pz        
     5      0.390297   1 C  pz               20     -0.390297   2 C  pz        

 Vector   34  Occ=0.000000D+00  E= 9.616513D-02  Symmetry=b2
              MO Center= -3.2D-13, -4.6D-11, -8.2D-01, r^2= 2.6D+00
   Bfn.  Coefficient  Atom+Function         Bfn.  Coefficient  Atom+Function  
  ----- ------------  ---------------      ----- ------------  ---------------
    43      0.521794   7 C  pz               58     -0.521794   8 C  pz        
    47      0.498389   7 C  pz               62     -0.498389   8 C  pz        
    73     -0.173713   9 F  pz               88     -0.173713  10 F  pz        
   103      0.173713  11 F  pz              118      0.173713  12 F  pz        
    77     -0.160426   9 F  pz               92     -0.160426  10 F  pz        

 Vector   35  Occ=0.000000D+00  E= 1.287477D-01  Symmetry=b1
              MO Center=  4.5D-12,  7.2D-13, -1.0D+00, r^2= 2.0D+00
   Bfn.  Coefficient  Atom+Function         Bfn.  Coefficient  Atom+Function  
  ----- ------------  ---------------      ----- ------------  ---------------
    45      0.493021   7 C  px               60      0.493021   8 C  px        
    41      0.394295   7 C  px               56      0.394295   8 C  px        
    74     -0.329991   9 F  s                89      0.329991  10 F  s         
   104      0.329991  11 F  s               119     -0.329991  12 F  s         
    76     -0.215167   9 F  py               91      0.215167  10 F  py        

 Vector   36  Occ=0.000000D+00  E= 1.874893D-01  Symmetry=a1
              MO Center= -4.0D-14, -2.0D-13,  2.9D+00, r^2= 5.1D+00
   Bfn.  Coefficient  Atom+Function         Bfn.  Coefficient  Atom+Function  
  ----- ------------  ---------------      ----- ------------  ---------------
     6      1.571090   1 C  s                21      1.571090   2 C  s         
    32     -1.091534   3 H  s                34     -1.091534   4 H  s         
    36     -1.091534   5 H  s                38     -1.091534   6 H  s         
     8      0.657663   1 C  py               23     -0.657663   2 C  py        
    44     -0.218030   7 C  s                59     -0.218030   8 C  s         

 Vector   37  Occ=0.000000D+00  E= 2.007735D-01  Symmetry=b2
              MO Center=  3.0D-11, -1.6D-09, -8.8D-01, r^2= 3.0D+00
   Bfn.  Coefficient  Atom+Function         Bfn.  Coefficient  Atom+Function  
  ----- ------------  ---------------      ----- ------------  ---------------
    44      1.223613   7 C  s                59     -1.223613   8 C  s         
    74     -0.462189   9 F  s                89     -0.462189  10 F  s         
   104      0.462189  11 F  s               119      0.462189  12 F  s         
    75      0.290277   9 F  px               90     -0.290277  10 F  px        
   105      0.290277  11 F  px              120     -0.290277  12 F  px        

 Vector   38  Occ=0.000000D+00  E= 2.122257D-01  Symmetry=b1
              MO Center=  1.1D-09,  1.8D-11,  3.0D+00, r^2= 4.4D+00
   Bfn.  Coefficient  Atom+Function         Bfn.  Coefficient  Atom+Function  
  ----- ------------  ---------------      ----- ------------  ---------------
    32      1.127916   3 H  s                34     -1.127916   4 H  s         
    36      1.127916   5 H  s                38     -1.127916   6 H  s         
     7      0.776461   1 C  px               22      0.776461   2 C  px        
     3      0.286855   1 C  px               18      0.286855   2 C  px        

 Vector   39  Occ=0.000000D+00  E= 2.137579D-01  Symmetry=a1
              MO Center= -1.1D-09,  3.8D-09, -8.4D-01, r^2= 3.4D+00
   Bfn.  Coefficient  Atom+Function         Bfn.  Coefficient  Atom+Function  
  ----- ------------  ---------------      ----- ------------  ---------------
    44      1.114119   7 C  s                59      1.114119   8 C  s         
    74     -0.552381   9 F  s                89     -0.552381  10 F  s         
   104     -0.552381  11 F  s               119     -0.552381  12 F  s         
    46     -0.528106   7 C  py               61      0.528106   8 C  py        
    42     -0.385986   7 C  py               57      0.385986   8 C  py        

 Vector   40  Occ=0.000000D+00  E= 2.249594D-01  Symmetry=b2
              MO Center=  1.8D-14, -2.0D-09,  2.9D+00, r^2= 5.4D+00
   Bfn.  Coefficient  Atom+Function         Bfn.  Coefficient  Atom+Function  
  ----- ------------  ---------------      ----- ------------  ---------------
     6      2.091712   1 C  s                21     -2.091712   2 C  s         
    32     -1.086079   3 H  s                34     -1.086079   4 H  s         
    36      1.086079   5 H  s                38      1.086079   6 H  s         
    44     -0.253663   7 C  s                59      0.253663   8 C  s         

 Vector   41  Occ=0.000000D+00  E= 3.028288D-01  Symmetry=a2
              MO Center=  3.6D-11, -2.1D-11,  3.0D+00, r^2= 5.5D+00
   Bfn.  Coefficient  Atom+Function         Bfn.  Coefficient  Atom+Function  
  ----- ------------  ---------------      ----- ------------  ---------------
     7      1.772579   1 C  px               22     -1.772579   2 C  px        
    32      1.662128   3 H  s                34     -1.662128   4 H  s         
    36     -1.662128   5 H  s                38      1.662128   6 H  s         
     3      0.300081   1 C  px               18     -0.300081   2 C  px        

 Vector   42  Occ=0.000000D+00  E= 3.895628D-01  Symmetry=b2
              MO Center= -6.1D-11, -1.9D-11,  3.0D+00, r^2= 3.5D+00
   Bfn.  Coefficient  Atom+Function         Bfn.  Coefficient  Atom+Function  
  ----- ------------  ---------------      ----- ------------  ---------------
     8     -2.965090   1 C  py               23     -2.965090   2 C  py        
     6      2.704334   1 C  s                21     -2.704334   2 C  s         
    32      0.741895   3 H  s                34      0.741895   4 H  s         
    36     -0.741895   5 H  s                38     -0.741895   6 H  s         
     4     -0.205925   1 C  py               19     -0.205925   2 C  py        

 Vector   43  Occ=0.000000D+00  E= 4.583366D-01  Symmetry=b2
              MO Center= -3.6D-11, -4.4D-12, -9.3D-01, r^2= 4.5D+00
   Bfn.  Coefficient  Atom+Function         Bfn.  Coefficient  Atom+Function  
  ----- ------------  ---------------      ----- ------------  ---------------
    44      3.557615   7 C  s                59     -3.557615   8 C  s         
    46      3.271062   7 C  py               61      3.271062   8 C  py        
    74      0.462357   9 F  s                89      0.462357  10 F  s         
   104     -0.462357  11 F  s               119     -0.462357  12 F  s         
    40      0.298388   7 C  s                55     -0.298388   8 C  s         

 Vector   44  Occ=0.000000D+00  E= 4.849025D-01  Symmetry=a2
              MO Center=  6.8D-11, -2.9D-11, -1.0D+00, r^2= 2.2D+00
   Bfn.  Coefficient  Atom+Function         Bfn.  Coefficient  Atom+Function  
  ----- ------------  ---------------      ----- ------------  ---------------
    45      1.385567   7 C  px               60     -1.385567   8 C  px        
    41      0.665969   7 C  px               56     -0.665969   8 C  px        
    74     -0.645459   9 F  s                89      0.645459  10 F  s         
   104     -0.645459  11 F  s               119      0.645459  12 F  s         
    76     -0.270694   9 F  py               91      0.270694  10 F  py        

 Vector   45  Occ=0.000000D+00  E= 4.898155D-01  Symmetry=a1
              MO Center=  1.8D-11, -3.5D-11,  4.6D-01, r^2= 4.0D+00
   Bfn.  Coefficient  Atom+Function         Bfn.  Coefficient  Atom+Function  
  ----- ------------  ---------------      ----- ------------  ---------------
    47     -0.511339   7 C  pz               62     -0.511339   8 C  pz        
    43      0.495226   7 C  pz               58      0.495226   8 C  pz        
    44     -0.416727   7 C  s                59     -0.416727   8 C  s         
     5     -0.358830   1 C  pz               20     -0.358830   2 C  pz        
     6     -0.325521   1 C  s                21     -0.325521   2 C  s         

 Vector   46  Occ=0.000000D+00  E= 5.316048D-01  Symmetry=a1
              MO Center=  1.0D-11,  7.4D-11,  9.6D-01, r^2= 7.7D+00
   Bfn.  Coefficient  Atom+Function         Bfn.  Coefficient  Atom+Function  
  ----- ------------  ---------------      ----- ------------  ---------------
    44      0.829521   7 C  s                59      0.829521   8 C  s         
     8      0.800606   1 C  py               23     -0.800606   2 C  py        
    46     -0.636241   7 C  py               61      0.636241   8 C  py        
    40     -0.470782   7 C  s                55     -0.470782   8 C  s         
     4     -0.395437   1 C  py               19      0.395437   2 C  py        


 center of mass
 --------------
 x =   0.00000000 y =   0.00000000 z =  -0.23468932

 moments of inertia (a.u.)
 ------------------
        1871.918937869714           0.000000000000           0.000000000000
           0.000000000000        1587.499903290933           0.000000000000
           0.000000000000           0.000000000000         957.526323808391

     Multipole analysis of the density
     ---------------------------------

     L   x y z        total         alpha         beta         nuclear
     -   - - -        -----         -----         ----         -------
     0   0 0 0     -0.000000    -32.000000    -32.000000     64.000000

     1   1 0 0      0.000000      0.000000      0.000000      0.000000
     1   0 1 0     -0.000000     -0.000000     -0.000000      0.000000
     1   0 0 1      0.044093      0.022046      0.022046     -0.000000

     2   2 0 0    -32.212563    -98.547982    -98.547982    164.883401
     2   1 1 0      0.000000      0.000000      0.000000      0.000000
     2   1 0 1      0.000000      0.000000      0.000000      0.000000
     2   0 2 0    -31.885961   -169.701679   -169.701679    307.517397
     2   0 1 1     -0.000000     -0.000000     -0.000000      0.000000
     2   0 0 2    -32.012915   -358.828631   -358.828631    685.644348

  int_init: cando_txs set to always be  F
                                NWChem TDDFT Module
                                -------------------


                                 Dimer Excitation


            General Information
            -------------------
           No. of orbitals :   256
            Alpha orbitals :   128
             Beta orbitals :   128
        Alpha frozen cores :     0
         Beta frozen cores :     0
     Alpha frozen virtuals :     0
      Beta frozen virtuals :     0
         Spin multiplicity :     1
    Number of AO functions :   128
        Use of symmetry is : off
      Symmetry adaption is : on 
         Schwarz screening : 0.10D-07

              XC Information
              --------------
              Hartree-Fock (Exact) Exchange   1.00          
            CAM-Becke88 Exchange Functional   1.00          
               VWN V Correlation Functional   0.19 local    
       Lee-Yang-Parr Correlation Functional   0.81          
           Alpha           :  0.19
           Beta            :  0.46
           Gamma           :  0.33

             TDDFT Information
             -----------------
          Calculation type : TDDFT             
         Wavefunction type : Restricted singlets
          No. of electrons :    64
           Alpha electrons :    32
            Beta electrons :    32
              No. of roots :   100
          Max subspacesize :  ****
            Max iterations :   100
               Target root :     1
           Target symmetry : none
      Symmetry restriction : off
                 Algorithm : Optimal
        Davidson threshold : 0.10D-03

            Memory Information
            ------------------
          Available GA space size is          65519616 doubles
          Available MA space size is          65534716 doubles
          Length of a trial vector is         3072
          Algorithm : Incore multiple tensor contraction
          Max subspace size reduced from     24000 to     3789
          Estimated peak GA usage is          60346368 doubles
          Estimated peak MA usage is           7010000 doubles

  100 smallest eigenvalue differences (eV) 
--------------------------------------------------------
  No. Spin  Occ  Vir  Irrep   E(Occ)    E(Vir)   E(Diff)
--------------------------------------------------------
    1    1   32   33 b2       -0.311     0.064    10.200
    2    1   31   33 b2       -0.331     0.064    10.748
    3    1   32   34 b2       -0.311     0.096    11.067
    4    1   31   34 b2       -0.331     0.096    11.615
    5    1   32   35 b1       -0.311     0.129    11.954
    6    1   31   35 b1       -0.331     0.129    12.501
    7    1   30   33 b1       -0.429     0.064    13.416
    8    1   32   36 a1       -0.311     0.187    13.552
    9    1   32   37 b2       -0.311     0.201    13.914
   10    1   31   36 a1       -0.331     0.187    14.100
   11    1   32   38 b1       -0.311     0.212    14.225
   12    1   32   39 a1       -0.311     0.214    14.267
   13    1   30   34 b1       -0.429     0.096    14.283
   14    1   31   37 b2       -0.331     0.201    14.461
   15    1   32   40 b2       -0.311     0.225    14.572
   16    1   31   38 b1       -0.331     0.212    14.773
   17    1   31   39 a1       -0.331     0.214    14.815
   18    1   31   40 b2       -0.331     0.225    15.119
   19    1   30   35 b2       -0.429     0.129    15.169
   20    1   29   33 b1       -0.495     0.064    15.208
   21    1   28   33 b2       -0.498     0.064    15.292
   22    1   27   33 b2       -0.511     0.064    15.651
   23    1   26   33 a2       -0.514     0.064    15.735
   24    1   25   33 b1       -0.519     0.064    15.885
   25    1   24   33 a2       -0.525     0.064    16.040
   26    1   29   34 b1       -0.495     0.096    16.075
   27    1   28   34 b2       -0.498     0.096    16.159
   28    1   27   34 b2       -0.511     0.096    16.518
   29    1   23   33 a2       -0.544     0.064    16.566
   30    1   26   34 a2       -0.514     0.096    16.602
   31    1   32   41 a2       -0.311     0.303    16.691
   32    1   22   33 a1       -0.551     0.064    16.741
   33    1   25   34 b1       -0.519     0.096    16.751
   34    1   30   36 a2       -0.429     0.187    16.768
   35    1   24   34 a2       -0.525     0.096    16.907
   36    1   29   35 b2       -0.495     0.129    16.962
   37    1   28   35 b1       -0.498     0.129    17.045
   38    1   30   37 b1       -0.429     0.201    17.129
   39    1   31   41 a2       -0.331     0.303    17.238
   40    1   27   35 b1       -0.511     0.129    17.405
   41    1   23   34 a2       -0.544     0.096    17.432
   42    1   30   38 b2       -0.429     0.212    17.441
   43    1   30   39 a2       -0.429     0.214    17.482
   44    1   21   33 a1       -0.578     0.064    17.486
   45    1   26   35 a1       -0.514     0.129    17.489
   46    1   22   34 a1       -0.551     0.096    17.608
   47    1   25   35 b2       -0.519     0.129    17.638
   48    1   30   40 b1       -0.429     0.225    17.787
   49    1   24   35 a1       -0.525     0.129    17.793
   50    1   23   35 a1       -0.544     0.129    18.319
   51    1   21   34 a1       -0.578     0.096    18.352
   52    1   22   35 a2       -0.551     0.129    18.495
   53    1   29   36 a2       -0.495     0.187    18.560
   54    1   28   36 a1       -0.498     0.187    18.644
   55    1   20   33 b2       -0.626     0.064    18.784
   56    1   19   33 b1       -0.628     0.064    18.844
   57    1   29   37 b1       -0.495     0.201    18.922
   58    1   27   36 a1       -0.511     0.187    19.003
   59    1   28   37 b2       -0.498     0.201    19.005
   60    1   32   42 b2       -0.311     0.390    19.051
   61    1   26   36 b1       -0.514     0.187    19.087
   62    1   29   38 b2       -0.495     0.212    19.233
   63    1   25   36 a2       -0.519     0.187    19.236
   64    1   21   35 a2       -0.578     0.129    19.239
   65    1   29   39 a2       -0.495     0.214    19.275
   66    1   28   38 b1       -0.498     0.212    19.317
   67    1   28   39 a1       -0.498     0.214    19.359
   68    1   27   37 b2       -0.511     0.201    19.365
   69    1   24   36 b1       -0.525     0.187    19.392
   70    1   26   37 a2       -0.514     0.201    19.449
   71    1   29   40 b1       -0.495     0.225    19.580
   72    1   25   37 b1       -0.519     0.201    19.598
   73    1   31   42 b2       -0.331     0.390    19.598
   74    1   20   34 b2       -0.626     0.096    19.651
   75    1   28   40 b2       -0.498     0.225    19.664
   76    1   27   38 b1       -0.511     0.212    19.676
   77    1   19   34 b1       -0.628     0.096    19.711
   78    1   27   39 a1       -0.511     0.214    19.718
   79    1   24   37 a2       -0.525     0.201    19.753
   80    1   26   38 a1       -0.514     0.212    19.760
   81    1   26   39 b1       -0.514     0.214    19.802
   82    1   30   41 a1       -0.429     0.303    19.906
   83    1   25   38 b2       -0.519     0.212    19.910
   84    1   23   36 b1       -0.544     0.187    19.917
   85    1   25   39 a2       -0.519     0.214    19.951
   86    1   27   40 b2       -0.511     0.225    20.023
   87    1   24   38 a1       -0.525     0.212    20.065
   88    1   22   36 b2       -0.551     0.187    20.093
   89    1   24   39 b1       -0.525     0.214    20.107
   90    1   26   40 a2       -0.514     0.225    20.107
   91    1   18   33 a2       -0.676     0.064    20.150
   92    1   17   33 a1       -0.678     0.064    20.193
   93    1   25   40 b1       -0.519     0.225    20.256
   94    1   23   37 a2       -0.544     0.201    20.279
   95    1   24   40 a2       -0.525     0.225    20.412
   96    1   16   33 b2       -0.686     0.064    20.418
   97    1   22   37 a1       -0.551     0.201    20.454
   98    1   20   35 b1       -0.626     0.129    20.538
   99    1   23   38 a1       -0.544     0.212    20.591
  100    1   19   35 b2       -0.628     0.129    20.598
--------------------------------------------------------

  Entering Davidson iterations
  Restricted singlet excited states

  Iter   NTrls   NConv    DeltaV     DeltaE      Time   
  ----  ------  ------  ---------  ---------  --------- 
    1    100       0     0.50E+00   0.10+100      472.8
    2    300       0     0.16E+00   0.33E-01      941.9
    3    500       2     0.70E-01   0.19E-01      948.9
    4    695      26     0.87E-01   0.69E-02      934.7
    5    842      63     0.58E-02   0.15E-02      716.4
    6    915      95     0.52E-03   0.17E-04      376.9
    7    925      98     0.11E-03   0.76E-07       87.6
    8    929     100     0.94E-04   0.18E-08       60.3
  ----  ------  ------  ---------  ---------  --------- 
  Convergence criterion met

  Ground state a1       -553.893793326557 a.u.

  ----------------------------------------------------------------------------
  Root   1 singlet b1             0.256438992 a.u.                6.9781 eV 
  ----------------------------------------------------------------------------
     Transition Moments    X -0.00682   Y  0.00000   Z -0.00000
     Transition Moments   XX -0.00000  XY  0.00000  XZ  0.31682
     Transition Moments   YY  0.00000  YZ  0.00000  ZZ -0.00000
     Dipole Oscillator Strength                         0.00001

     Occ.   31  a1  ---  Virt.   35  b1   0.22691 X
     Occ.   32  a1  ---  Virt.   35  b1  -0.97171 X
  ----------------------------------------------------------------------------
  Root   2 singlet b2             0.287088272 a.u.                7.8121 eV 
  ----------------------------------------------------------------------------
     Transition Moments    X  0.00000   Y -0.21500   Z  0.00000
     Transition Moments   XX  0.00000  XY  0.00000  XZ  0.00000
     Transition Moments   YY  0.00000  YZ -4.47762  ZZ  0.00000
     Dipole Oscillator Strength                         0.00885

     Occ.   31  a1  ---  Virt.   33  b2   0.23625 X
     Occ.   31  a1  ---  Virt.   33  b2  -0.06283 Y
     Occ.   32  a1  ---  Virt.   33  b2   0.96324 X
     Occ.   32  a1  ---  Virt.   34  b2   0.09215 X
     Occ.   32  a1  ---  Virt.   37  b2   0.06934 X
  ----------------------------------------------------------------------------
  Root   3 singlet b2             0.301781074 a.u.                8.2119 eV 
  ----------------------------------------------------------------------------
     Transition Moments    X -0.00000   Y  0.95086   Z -0.00000
     Transition Moments   XX  0.00000  XY -0.00000  XZ -0.00000
     Transition Moments   YY -0.00000  YZ  6.49940  ZZ -0.00000
     Dipole Oscillator Strength                         0.18190

     Occ.   17  b2  ---  Virt.   36  a1   0.05557 X
     Occ.   23  b1  ---  Virt.   41  a2   0.05226 X
     Occ.   28  a1  ---  Virt.   42  b2  -0.08463 X
     Occ.   30  a2  ---  Virt.   49  b1  -0.05308 X
     Occ.   31  a1  ---  Virt.   33  b2  -0.94500 X
     Occ.   31  a1  ---  Virt.   33  b2   0.10818 Y
     Occ.   32  a1  ---  Virt.   33  b2   0.25085 X
     Occ.   32  a1  ---  Virt.   34  b2  -0.19121 X
  ----------------------------------------------------------------------------
  Root   4 singlet b2             0.318927763 a.u.                8.6785 eV 
  ----------------------------------------------------------------------------
     Transition Moments    X -0.00000   Y  1.58340   Z  0.00000
     Transition Moments   XX  0.00000  XY  0.00000  XZ -0.00000
     Transition Moments   YY -0.00000  YZ -0.93559  ZZ  0.00000
     Dipole Oscillator Strength                         0.53307

     Occ.   19  a2  ---  Virt.   35  b1   0.05534 X
     Occ.   27  a1  ---  Virt.   37  b2   0.07716 X
     Occ.   29  a2  ---  Virt.   35  b1   0.09866 X
     Occ.   31  a1  ---  Virt.   33  b2  -0.21193 X
     Occ.   31  a1  ---  Virt.   34  b2  -0.09262 X
     Occ.   32  a1  ---  Virt.   34  b2   0.96293 X
     Occ.   32  a1  ---  Virt.   34  b2  -0.12311 Y
  ----------------------------------------------------------------------------
  Root   5 singlet b1             0.319143740 a.u.                8.6843 eV 
  ----------------------------------------------------------------------------
     Transition Moments    X -0.01033   Y -0.00000   Z  0.00000
     Transition Moments   XX  0.00000  XY  0.00000  XZ -0.84897
     Transition Moments   YY -0.00000  YZ  0.00000  ZZ -0.00000
     Dipole Oscillator Strength                         0.00002

     Occ.   30  a2  ---  Virt.   33  b2   0.98193 X
     Occ.   30  a2  ---  Virt.   34  b2  -0.16782 X
     Occ.   31  a1  ---  Virt.   38  b1  -0.07013 X
  ----------------------------------------------------------------------------
  Root   6 singlet b2             0.339414529 a.u.                9.2359 eV 
  ----------------------------------------------------------------------------
     Transition Moments    X -0.00000   Y  0.01648   Z  0.00000
     Transition Moments   XX -0.00000  XY -0.00000  XZ -0.00000
     Transition Moments   YY -0.00000  YZ  1.97568  ZZ  0.00000
     Dipole Oscillator Strength                         0.00006

     Occ.   31  a1  ---  Virt.   34  b2   0.98835 X
     Occ.   31  a1  ---  Virt.   37  b2   0.07111 X
     Occ.   32  a1  ---  Virt.   34  b2   0.10688 X
     Occ.   32  a1  ---  Virt.   37  b2   0.05862 X
  ----------------------------------------------------------------------------
  Root   7 singlet b2             0.354118253 a.u.                9.6361 eV 
  ----------------------------------------------------------------------------
     Transition Moments    X  0.00000   Y -0.06577   Z  0.00000
     Transition Moments   XX -0.00000  XY  0.00000  XZ -0.00000
     Transition Moments   YY -0.00000  YZ -0.45500  ZZ -0.00000
     Dipole Oscillator Strength                         0.00102

     Occ.   21  b2  ---  Virt.   39  a1   0.07951 X
     Occ.   25  a2  ---  Virt.   35  b1   0.05207 X
     Occ.   31  a1  ---  Virt.   37  b2   0.21936 X
     Occ.   32  a1  ---  Virt.   33  b2   0.07984 X
     Occ.   32  a1  ---  Virt.   37  b2  -0.95695 X
     Occ.   32  a1  ---  Virt.   40  b2   0.10804 X
  ----------------------------------------------------------------------------
  Root   8 singlet a1             0.361289646 a.u.                9.8312 eV 
  ----------------------------------------------------------------------------
     Transition Moments    X -0.00000   Y  0.00000   Z  0.48944
     Transition Moments   XX  0.02425  XY -0.00000  XZ  0.00000
     Transition Moments   YY  0.04034  YZ  0.00000  ZZ -1.12058
     Dipole Oscillator Strength                         0.05770

     Occ.   21  b2  ---  Virt.   37  b2   0.09383 X
     Occ.   24  b1  ---  Virt.   35  b1   0.06247 X
     Occ.   31  a1  ---  Virt.   39  a1   0.21916 X
     Occ.   32  a1  ---  Virt.   36  a1   0.27236 X
     Occ.   32  a1  ---  Virt.   39  a1  -0.92611 X
  ----------------------------------------------------------------------------
  Root   9 singlet a1             0.367117903 a.u.                9.9898 eV 
  ----------------------------------------------------------------------------
     Transition Moments    X -0.00000   Y  0.00000   Z -0.05811
     Transition Moments   XX -0.00509  XY  0.00000  XZ -0.00000
     Transition Moments   YY  0.00145  YZ -0.00000  ZZ -1.26462
     Dipole Oscillator Strength                         0.00083

     Occ.   17  b2  ---  Virt.   33  b2   0.05802 X
     Occ.   31  a1  ---  Virt.   36  a1  -0.92486 X
     Occ.   31  a1  ---  Virt.   39  a1  -0.08459 X
     Occ.   32  a1  ---  Virt.   36  a1  -0.32843 X
     Occ.   32  a1  ---  Virt.   39  a1  -0.15792 X
  ----------------------------------------------------------------------------
  Root  10 singlet b2             0.369491610 a.u.               10.0544 eV 
  ----------------------------------------------------------------------------
     Transition Moments    X -0.00000   Y  0.00674   Z  0.00000
     Transition Moments   XX  0.00000  XY  0.00000  XZ -0.00000
     Transition Moments   YY  0.00000  YZ -1.09413  ZZ  0.00000
     Dipole Oscillator Strength                         0.00001

     Occ.   14  a1  ---  Virt.   33  b2  -0.06509 X
     Occ.   28  a1  ---  Virt.   33  b2   0.97526 X
     Occ.   28  a1  ---  Virt.   34  b2  -0.17529 X
     Occ.   31  a1  ---  Virt.   40  b2  -0.08882 X
  ----------------------------------------------------------------------------
  Root  11 singlet b1             0.373682635 a.u.               10.1684 eV 
  ----------------------------------------------------------------------------
     Transition Moments    X -0.01170   Y -0.00000   Z -0.00000
     Transition Moments   XX  0.00000  XY  0.00000  XZ  0.00818
     Transition Moments   YY -0.00000  YZ -0.00000  ZZ -0.00000
     Dipole Oscillator Strength                         0.00003

     Occ.   31  a1  ---  Virt.   35  b1  -0.94847 X
     Occ.   31  a1  ---  Virt.   38  b1   0.21021 X
     Occ.   32  a1  ---  Virt.   35  b1  -0.22184 X
     Occ.   32  a1  ---  Virt.   38  b1   0.07862 X
  ----------------------------------------------------------------------------
  Root  12 singlet b1             0.381393139 a.u.               10.3782 eV 
  ----------------------------------------------------------------------------
     Transition Moments    X  0.00395   Y  0.00000   Z  0.00000
     Transition Moments   XX -0.00000  XY -0.00000  XZ  0.09023
     Transition Moments   YY -0.00000  YZ  0.00000  ZZ  0.00000
     Dipole Oscillator Strength                         0.00000

     Occ.   30  a2  ---  Virt.   33  b2   0.07189 X
     Occ.   31  a1  ---  Virt.   35  b1   0.21980 X
     Occ.   31  a1  ---  Virt.   38  b1   0.90877 X
     Occ.   32  a1  ---  Virt.   38  b1   0.34127 X
  ----------------------------------------------------------------------------
  Root  13 singlet b2             0.410257491 a.u.               11.1637 eV 
  ----------------------------------------------------------------------------
     Transition Moments    X  0.00000   Y  0.00658   Z  0.00000
     Transition Moments   XX -0.00000  XY -0.00000  XZ  0.00000
     Transition Moments   YY -0.00000  YZ  0.19837  ZZ  0.00000
     Dipole Oscillator Strength                         0.00001

     Occ.   14  a1  ---  Virt.   33  b2  -0.05187 X
     Occ.   28  a1  ---  Virt.   33  b2   0.09069 X
     Occ.   31  a1  ---  Virt.   37  b2   0.22924 X
     Occ.   31  a1  ---  Virt.   40  b2   0.89388 X
     Occ.   32  a1  ---  Virt.   37  b2   0.06764 X
     Occ.   32  a1  ---  Virt.   40  b2   0.36269 X
  ----------------------------------------------------------------------------
  Root  14 singlet b1             0.423433623 a.u.               11.5222 eV 
  ----------------------------------------------------------------------------
     Transition Moments    X -0.00253   Y  0.00000   Z  0.00000
     Transition Moments   XX  0.00000  XY  0.00000  XZ  0.11527
     Transition Moments   YY  0.00000  YZ  0.00000  ZZ -0.00000
     Dipole Oscillator Strength                         0.00000

     Occ.   29  a2  ---  Virt.   33  b2   0.33378 X
     Occ.   29  a2  ---  Virt.   34  b2   0.94215 X
  ----------------------------------------------------------------------------
  Root  15 singlet a1             0.424115697 a.u.               11.5408 eV 
  ----------------------------------------------------------------------------
     Transition Moments    X -0.00000   Y  0.00000   Z  0.03176
     Transition Moments   XX  0.01973  XY  0.00000  XZ -0.00000
     Transition Moments   YY  0.04311  YZ  0.00000  ZZ  0.01746
     Dipole Oscillator Strength                         0.00029

     Occ.   31  a1  ---  Virt.   36  a1   0.35519 X
     Occ.   31  a1  ---  Virt.   39  a1   0.05588 X
     Occ.   32  a1  ---  Virt.   36  a1  -0.90295 X
     Occ.   32  a1  ---  Virt.   39  a1  -0.23318 X
  ----------------------------------------------------------------------------
  Root  16 singlet a2             0.428189258 a.u.               11.6516 eV 
  ----------------------------------------------------------------------------
     Transition Moments    X -0.00000   Y -0.00000   Z  0.00000
     Transition Moments   XX  0.00000  XY -0.01085  XZ -0.00000
     Transition Moments   YY  0.00000  YZ -0.00000  ZZ  0.00000
     Dipole Oscillator Strength                         0.00000

     Occ.   23  b1  ---  Virt.   33  b2   0.98095 X
     Occ.   23  b1  ---  Virt.   34  b2  -0.17061 X
     Occ.   31  a1  ---  Virt.   41  a2  -0.06027 X
  ----------------------------------------------------------------------------
  Root  17 singlet b2             0.430475337 a.u.               11.7138 eV 
  ----------------------------------------------------------------------------
     Transition Moments    X  0.00000   Y -0.00115   Z  0.00000
     Transition Moments   XX  0.00000  XY  0.00000  XZ  0.00000
     Transition Moments   YY  0.00000  YZ  0.00673  ZZ  0.00000
     Dipole Oscillator Strength                         0.00000

     Occ.   16  a1  ---  Virt.   34  b2   0.05447 X
     Occ.   27  a1  ---  Virt.   33  b2  -0.31640 X
     Occ.   27  a1  ---  Virt.   34  b2  -0.94433 X
  ----------------------------------------------------------------------------
  Root  18 singlet a2             0.442229410 a.u.               12.0337 eV 
  ----------------------------------------------------------------------------
     Transition Moments    X -0.00000   Y  0.00000   Z  0.00000
     Transition Moments   XX  0.00000  XY  0.00430  XZ -0.00000
     Transition Moments   YY -0.00000  YZ  0.00000  ZZ  0.00000
     Dipole Oscillator Strength                         0.00000

     Occ.   26  b1  ---  Virt.   33  b2   0.33272 X
     Occ.   26  b1  ---  Virt.   34  b2   0.94243 X
  ----------------------------------------------------------------------------
  Root  19 singlet b1             0.442305654 a.u.               12.0358 eV 
  ----------------------------------------------------------------------------
     Transition Moments    X -0.03564   Y  0.00000   Z -0.00000
     Transition Moments   XX -0.00000  XY  0.00000  XZ -0.16383
     Transition Moments   YY -0.00000  YZ  0.00000  ZZ -0.00000
     Dipole Oscillator Strength                         0.00037

     Occ.   30  a2  ---  Virt.   33  b2  -0.17021 X
     Occ.   30  a2  ---  Virt.   34  b2  -0.98166 X
     Occ.   30  a2  ---  Virt.   37  b2  -0.07848 X
  ----------------------------------------------------------------------------
  Root  20 singlet b2             0.447325681 a.u.               12.1724 eV 
  ----------------------------------------------------------------------------
     Transition Moments    X  0.00000   Y  0.06540   Z  0.00000
     Transition Moments   XX  0.00000  XY -0.00000  XZ  0.00000
     Transition Moments   YY -0.00000  YZ  0.60341  ZZ  0.00000
     Dipole Oscillator Strength                         0.00128

     Occ.   31  a1  ---  Virt.   34  b2  -0.07803 X
     Occ.   31  a1  ---  Virt.   37  b2   0.94298 X
     Occ.   31  a1  ---  Virt.   40  b2  -0.21496 X
     Occ.   32  a1  ---  Virt.   37  b2   0.20967 X
     Occ.   32  a1  ---  Virt.   40  b2  -0.10845 X
  ----------------------------------------------------------------------------
  Root  21 singlet b1             0.447481759 a.u.               12.1766 eV 
  ----------------------------------------------------------------------------
     Transition Moments    X  0.00233   Y -0.00000   Z -0.00000
     Transition Moments   XX -0.00000  XY  0.00000  XZ  0.02817
     Transition Moments   YY -0.00000  YZ -0.00000  ZZ -0.00000
     Dipole Oscillator Strength                         0.00000

     Occ.   31  a1  ---  Virt.   38  b1   0.35109 X
     Occ.   32  a1  ---  Virt.   38  b1  -0.93599 X
  ----------------------------------------------------------------------------
  Root  22 singlet b1             0.456909588 a.u.               12.4331 eV 
  ----------------------------------------------------------------------------
     Transition Moments    X -0.13615   Y  0.00000   Z -0.00000
     Transition Moments   XX -0.00000  XY  0.00000  XZ  0.34550
     Transition Moments   YY -0.00000  YZ  0.00000  ZZ -0.00000
     Dipole Oscillator Strength                         0.00565

     Occ.   25  a2  ---  Virt.   33  b2  -0.30392 X
     Occ.   25  a2  ---  Virt.   34  b2  -0.80542 X
     Occ.   27  a1  ---  Virt.   35  b1   0.50083 X
  ----------------------------------------------------------------------------
  Root  23 singlet a1             0.457881759 a.u.               12.4596 eV 
  ----------------------------------------------------------------------------
     Transition Moments    X  0.00000   Y -0.00000   Z -0.28357
     Transition Moments   XX -0.08782  XY  0.00000  XZ -0.00000
     Transition Moments   YY -0.12657  YZ  0.00000  ZZ -1.51248
     Dipole Oscillator Strength                         0.02455

     Occ.   31  a1  ---  Virt.   36  a1  -0.11182 X
     Occ.   31  a1  ---  Virt.   39  a1   0.96625 X
     Occ.   32  a1  ---  Virt.   39  a1   0.21518 X
  ----------------------------------------------------------------------------
  Root  24 singlet b2             0.460674013 a.u.               12.5356 eV 
  ----------------------------------------------------------------------------
     Transition Moments    X  0.00000   Y -0.04594   Z -0.00000
     Transition Moments   XX -0.00000  XY -0.00000  XZ -0.00000
     Transition Moments   YY -0.00000  YZ  0.10468  ZZ  0.00000
     Dipole Oscillator Strength                         0.00065

     Occ.   29  a2  ---  Virt.   35  b1   0.10993 X
     Occ.   31  a1  ---  Virt.   40  b2   0.37582 X
     Occ.   32  a1  ---  Virt.   37  b2  -0.11493 X
     Occ.   32  a1  ---  Virt.   40  b2  -0.91178 X
  ----------------------------------------------------------------------------
  Root  25 singlet b2             0.461969308 a.u.               12.5708 eV 
  ----------------------------------------------------------------------------
     Transition Moments    X  0.00000   Y -0.47474   Z  0.00000
     Transition Moments   XX -0.00000  XY  0.00000  XZ  0.00000
     Transition Moments   YY -0.00000  YZ  1.13071  ZZ  0.00000
     Dipole Oscillator Strength                         0.06941

     Occ.   16  a1  ---  Virt.   37  b2   0.05324 X
     Occ.   19  a2  ---  Virt.   35  b1  -0.07753 X
     Occ.   22  b2  ---  Virt.   39  a1   0.08415 X
     Occ.   26  b1  ---  Virt.   44  a2   0.07551 X
     Occ.   29  a2  ---  Virt.   35  b1   0.97513 X
     Occ.   32  a1  ---  Virt.   34  b2  -0.09571 X
     Occ.   32  a1  ---  Virt.   40  b2   0.10177 X
  ----------------------------------------------------------------------------
  Root  26 singlet a2             0.467663470 a.u.               12.7258 eV 
  ----------------------------------------------------------------------------
     Transition Moments    X -0.00000   Y -0.00000   Z  0.00000
     Transition Moments   XX  0.00000  XY  0.92746  XZ -0.00000
     Transition Moments   YY  0.00000  YZ -0.00000  ZZ  0.00000
     Dipole Oscillator Strength                         0.00000

     Occ.   19  a2  ---  Virt.   39  a1   0.05290 X
     Occ.   22  b2  ---  Virt.   35  b1   0.19711 X
     Occ.   24  b1  ---  Virt.   33  b2  -0.34876 X
     Occ.   24  b1  ---  Virt.   34  b2  -0.89157 X
     Occ.   26  b1  ---  Virt.   37  b2  -0.12429 X
     Occ.   29  a2  ---  Virt.   39  a1  -0.11901 X
  ----------------------------------------------------------------------------
  Root  27 singlet a2             0.473515464 a.u.               12.8850 eV 
  ----------------------------------------------------------------------------
     Transition Moments    X -0.00000   Y -0.00000   Z  0.00000
     Transition Moments   XX  0.00000  XY  3.43499  XZ -0.00000
     Transition Moments   YY -0.00000  YZ -0.00000  ZZ  0.00000
     Dipole Oscillator Strength                         0.00000

     Occ.   23  b1  ---  Virt.   40  b2   0.10515 X
     Occ.   30  a2  ---  Virt.   36  a1   0.98641 X
     Occ.   30  a2  ---  Virt.   39  a1   0.11453 X
  ----------------------------------------------------------------------------
  Root  28 singlet a1             0.475457355 a.u.               12.9379 eV 
  ----------------------------------------------------------------------------
     Transition Moments    X  0.00000   Y -0.00000   Z  0.00205
     Transition Moments   XX  0.43177  XY -0.00000  XZ  0.00000
     Transition Moments   YY -0.66244  YZ -0.00000  ZZ  0.03373
     Dipole Oscillator Strength                         0.00000

     Occ.   21  b2  ---  Virt.   34  b2   0.07030 X
     Occ.   22  b2  ---  Virt.   37  b2  -0.09677 X
     Occ.   26  b1  ---  Virt.   35  b1  -0.98106 X
     Occ.   27  a1  ---  Virt.   39  a1  -0.10368 X
     Occ.   29  a2  ---  Virt.   44  a2  -0.08059 X
  ----------------------------------------------------------------------------
  Root  29 singlet b2             0.477955495 a.u.               13.0058 eV 
  ----------------------------------------------------------------------------
     Transition Moments    X -0.00000   Y  0.06787   Z  0.00000
     Transition Moments   XX -0.00000  XY  0.00000  XZ -0.00000
     Transition Moments   YY  0.00000  YZ  0.30763  ZZ -0.00000
     Dipole Oscillator Strength                         0.00147

     Occ.   25  a2  ---  Virt.   35  b1  -0.16224 X
     Occ.   30  a2  ---  Virt.   35  b1  -0.98544 X
  ----------------------------------------------------------------------------
  Root  30 singlet a1             0.478220199 a.u.               13.0130 eV 
  ----------------------------------------------------------------------------
     Transition Moments    X -0.00000   Y  0.00000   Z -0.01432
     Transition Moments   XX  0.00341  XY -0.00000  XZ -0.00000
     Transition Moments   YY -0.00736  YZ  0.00000  ZZ  0.05544
     Dipole Oscillator Strength                         0.00007

     Occ.   22  b2  ---  Virt.   33  b2  -0.32338 X
     Occ.   22  b2  ---  Virt.   34  b2  -0.92062 X
     Occ.   24  b1  ---  Virt.   35  b1   0.21313 X
  ----------------------------------------------------------------------------
  Root  31 singlet b1             0.478423468 a.u.               13.0186 eV 
  ----------------------------------------------------------------------------
     Transition Moments    X  0.14560   Y  0.00000   Z -0.00000
[...]
     Occ.   26  b1  ---  Virt.   36  a1   0.05145 X
     Occ.   26  b1  ---  Virt.   39  a1  -0.08360 X
  ----------------------------------------------------------------------------
  Root  82 singlet a1             0.615275773 a.u.               16.7425 eV 
  ----------------------------------------------------------------------------
     Transition Moments    X  0.00000   Y -0.00000   Z  0.44326
     Transition Moments   XX -0.49799  XY  0.00000  XZ -0.00000
     Transition Moments   YY -0.55891  YZ  0.00000  ZZ -2.01836
     Dipole Oscillator Strength                         0.08059

     Occ.   15  b2  ---  Virt.   33  b2  -0.06709 X
     Occ.   15  b2  ---  Virt.   34  b2  -0.22947 X
     Occ.   17  b2  ---  Virt.   33  b2   0.06304 X
     Occ.   20  a1  ---  Virt.   36  a1   0.06599 X
     Occ.   20  a1  ---  Virt.   39  a1  -0.31461 X
     Occ.   21  b2  ---  Virt.   33  b2   0.08433 X
     Occ.   21  b2  ---  Virt.   37  b2  -0.85715 X
     Occ.   21  b2  ---  Virt.   40  b2   0.10194 X
     Occ.   23  b1  ---  Virt.   38  b1   0.05169 X
     Occ.   24  b1  ---  Virt.   35  b1   0.06591 X
     Occ.   30  a2  ---  Virt.   41  a2  -0.23369 X
     Occ.   32  a1  ---  Virt.   39  a1  -0.06987 X
  ----------------------------------------------------------------------------
  Root  83 singlet b2             0.615685357 a.u.               16.7537 eV 
  ----------------------------------------------------------------------------
     Transition Moments    X  0.00000   Y -0.00107   Z  0.00000
     Transition Moments   XX -0.00000  XY -0.00000  XZ  0.00000
     Transition Moments   YY -0.00000  YZ -0.01224  ZZ  0.00000
     Dipole Oscillator Strength                         0.00000

     Occ.   16  a1  ---  Virt.   34  b2  -0.07025 X
     Occ.   20  a1  ---  Virt.   33  b2   0.17760 X
     Occ.   20  a1  ---  Virt.   34  b2  -0.07012 X
     Occ.   20  a1  ---  Virt.   37  b2  -0.11967 X
     Occ.   21  b2  ---  Virt.   39  a1  -0.13457 X
     Occ.   31  a1  ---  Virt.   42  b2   0.13447 X
     Occ.   31  a1  ---  Virt.   43  b2  -0.18814 X
     Occ.   32  a1  ---  Virt.   42  b2  -0.36853 X
     Occ.   32  a1  ---  Virt.   43  b2   0.84782 X
     Occ.   32  a1  ---  Virt.   50  b2   0.05836 X
  ----------------------------------------------------------------------------
  Root  84 singlet b2             0.618193064 a.u.               16.8219 eV 
  ----------------------------------------------------------------------------
     Transition Moments    X  0.00000   Y  0.09985   Z -0.00000
     Transition Moments   XX  0.00000  XY -0.00000  XZ -0.00000
     Transition Moments   YY  0.00000  YZ  0.64689  ZZ  0.00000
     Dipole Oscillator Strength                         0.00411

     Occ.   28  a1  ---  Virt.   34  b2   0.08540 X
     Occ.   28  a1  ---  Virt.   37  b2  -0.96812 X
     Occ.   28  a1  ---  Virt.   40  b2   0.22734 X
  ----------------------------------------------------------------------------
  Root  85 singlet b2             0.623642913 a.u.               16.9702 eV 
  ----------------------------------------------------------------------------
     Transition Moments    X -0.00000   Y  0.04211   Z  0.00000
     Transition Moments   XX -0.00000  XY  0.00000  XZ -0.00000
     Transition Moments   YY -0.00000  YZ  0.88321  ZZ  0.00000
     Dipole Oscillator Strength                         0.00074

     Occ.   13  a1  ---  Virt.   34  b2  -0.05551 X
     Occ.   16  a1  ---  Virt.   34  b2  -0.11351 X
     Occ.   20  a1  ---  Virt.   33  b2  -0.18746 X
     Occ.   20  a1  ---  Virt.   34  b2   0.06295 X
     Occ.   20  a1  ---  Virt.   37  b2   0.29848 X
     Occ.   21  b2  ---  Virt.   36  a1  -0.13164 X
     Occ.   21  b2  ---  Virt.   39  a1   0.56910 X
     Occ.   25  a2  ---  Virt.   35  b1  -0.05588 X
     Occ.   31  a1  ---  Virt.   42  b2   0.23901 X
     Occ.   32  a1  ---  Virt.   37  b2   0.05104 X
     Occ.   32  a1  ---  Virt.   42  b2  -0.64906 X
     Occ.   32  a1  ---  Virt.   43  b2  -0.13401 X
  ----------------------------------------------------------------------------
  Root  86 singlet b2             0.624886888 a.u.               17.0040 eV 
  ----------------------------------------------------------------------------
     Transition Moments    X  0.00000   Y  0.05169   Z -0.00000
     Transition Moments   XX  0.00000  XY  0.00000  XZ  0.00000
     Transition Moments   YY  0.00000  YZ  0.96794  ZZ -0.00000
     Dipole Oscillator Strength                         0.00111

     Occ.   13  a1  ---  Virt.   34  b2  -0.08354 X
     Occ.   16  a1  ---  Virt.   33  b2  -0.05551 X
     Occ.   16  a1  ---  Virt.   34  b2  -0.13949 X
     Occ.   20  a1  ---  Virt.   33  b2  -0.12408 X
     Occ.   20  a1  ---  Virt.   37  b2   0.26256 X
     Occ.   21  b2  ---  Virt.   36  a1  -0.14613 X
     Occ.   21  b2  ---  Virt.   39  a1   0.55846 X
     Occ.   31  a1  ---  Virt.   42  b2  -0.20772 X
     Occ.   31  a1  ---  Virt.   43  b2  -0.09533 X
     Occ.   32  a1  ---  Virt.   42  b2   0.56797 X
     Occ.   32  a1  ---  Virt.   43  b2   0.40702 X
  ----------------------------------------------------------------------------
  Root  87 singlet a1             0.624987617 a.u.               17.0068 eV 
  ----------------------------------------------------------------------------
     Transition Moments    X -0.00000   Y -0.00000   Z  0.01204
     Transition Moments   XX  0.00077  XY  0.00000  XZ -0.00000
     Transition Moments   YY  0.07919  YZ -0.00000  ZZ  0.04654
     Dipole Oscillator Strength                         0.00006

     Occ.   22  b2  ---  Virt.   37  b2   0.10374 X
     Occ.   22  b2  ---  Virt.   40  b2   0.05649 X
     Occ.   26  b1  ---  Virt.   38  b1  -0.08276 X
     Occ.   27  a1  ---  Virt.   36  a1  -0.94539 X
     Occ.   27  a1  ---  Virt.   39  a1  -0.28409 X
  ----------------------------------------------------------------------------
  Root  88 singlet a1             0.626375074 a.u.               17.0445 eV 
  ----------------------------------------------------------------------------
     Transition Moments    X  0.00000   Y -0.00000   Z  0.04917
     Transition Moments   XX  1.22397  XY -0.00000  XZ  0.00000
     Transition Moments   YY  1.52414  YZ  0.00000  ZZ  0.17913
     Dipole Oscillator Strength                         0.00101

     Occ.   17  b2  ---  Virt.   40  b2  -0.07937 X
     Occ.   23  b1  ---  Virt.   38  b1   0.88259 X
     Occ.   28  a1  ---  Virt.   36  a1   0.07747 X
     Occ.   28  a1  ---  Virt.   39  a1  -0.35355 X
     Occ.   28  a1  ---  Virt.   46  a1   0.05737 X
     Occ.   30  a2  ---  Virt.   41  a2  -0.12927 X
     Occ.   31  a1  ---  Virt.   45  a1   0.14907 X
     Occ.   31  a1  ---  Virt.   52  a1  -0.05475 X
     Occ.   31  a1  ---  Virt.   53  a1   0.06848 X
     Occ.   32  a1  ---  Virt.   45  a1   0.11817 X
  ----------------------------------------------------------------------------
  Root  89 singlet b1             0.627128020 a.u.               17.0650 eV 
  ----------------------------------------------------------------------------
     Transition Moments    X -0.04948   Y -0.00000   Z  0.00000
     Transition Moments   XX  0.00000  XY  0.00000  XZ  0.15770
     Transition Moments   YY  0.00000  YZ  0.00000  ZZ  0.00000
     Dipole Oscillator Strength                         0.00102

     Occ.   26  b1  ---  Virt.   36  a1   0.90161 X
     Occ.   26  b1  ---  Virt.   39  a1   0.28609 X
     Occ.   27  a1  ---  Virt.   38  b1   0.10897 X
     Occ.   29  a2  ---  Virt.   37  b2  -0.07250 X
     Occ.   29  a2  ---  Virt.   40  b2  -0.28883 X
  ----------------------------------------------------------------------------
  Root  90 singlet a2             0.627478284 a.u.               17.0746 eV 
  ----------------------------------------------------------------------------
     Transition Moments    X  0.00000   Y  0.00000   Z -0.00000
     Transition Moments   XX  0.00000  XY  2.18229  XZ -0.00000
     Transition Moments   YY  0.00000  YZ -0.00000  ZZ -0.00000
     Dipole Oscillator Strength                         0.00000

     Occ.   23  b1  ---  Virt.   37  b2   0.23329 X
     Occ.   23  b1  ---  Virt.   40  b2   0.96109 X
     Occ.   30  a2  ---  Virt.   36  a1  -0.10373 X
  ----------------------------------------------------------------------------
  Root  91 singlet a1             0.628448156 a.u.               17.1010 eV 
  ----------------------------------------------------------------------------
     Transition Moments    X -0.00000   Y  0.00000   Z -0.09288
     Transition Moments   XX -0.65760  XY -0.00000  XZ  0.00000
     Transition Moments   YY -0.68450  YZ -0.00000  ZZ -0.74389
     Dipole Oscillator Strength                         0.00361

     Occ.   17  b2  ---  Virt.   33  b2   0.05439 X
     Occ.   23  b1  ---  Virt.   38  b1  -0.34064 X
     Occ.   28  a1  ---  Virt.   36  a1   0.09613 X
     Occ.   28  a1  ---  Virt.   39  a1  -0.92315 X
     Occ.   31  a1  ---  Virt.   45  a1  -0.06071 X
     Occ.   32  a1  ---  Virt.   45  a1  -0.05642 X
  ----------------------------------------------------------------------------
  Root  92 singlet b2             0.631524406 a.u.               17.1847 eV 
  ----------------------------------------------------------------------------
     Transition Moments    X -0.00000   Y -0.90657   Z -0.00000
     Transition Moments   XX -0.00000  XY  0.00000  XZ -0.00000
     Transition Moments   YY -0.00000  YZ  1.64172  ZZ -0.00000
     Dipole Oscillator Strength                         0.34602

     Occ.   16  a1  ---  Virt.   37  b2   0.05628 X
     Occ.   19  a2  ---  Virt.   35  b1   0.64924 X
     Occ.   20  a1  ---  Virt.   34  b2   0.21861 X
     Occ.   22  b2  ---  Virt.   36  a1   0.20338 X
     Occ.   22  b2  ---  Virt.   39  a1  -0.55472 X
     Occ.   27  a1  ---  Virt.   37  b2   0.26224 X
     Occ.   29  a2  ---  Virt.   35  b1   0.08082 X
     Occ.   29  a2  ---  Virt.   38  b1   0.28276 X
     Occ.   29  a2  ---  Virt.   48  b1  -0.05476 X
     Occ.   32  a1  ---  Virt.   34  b2  -0.05243 X
  ----------------------------------------------------------------------------
  Root  93 singlet b2             0.632596084 a.u.               17.2138 eV 
  ----------------------------------------------------------------------------
     Transition Moments    X -0.00000   Y -0.27524   Z  0.00000
     Transition Moments   XX  0.00000  XY -0.00000  XZ -0.00000
     Transition Moments   YY  0.00000  YZ  0.49966  ZZ  0.00000
     Dipole Oscillator Strength                         0.03195

     Occ.   19  a2  ---  Virt.   35  b1   0.19062 X
     Occ.   20  a1  ---  Virt.   34  b2   0.06327 X
     Occ.   22  b2  ---  Virt.   39  a1  -0.19488 X
     Occ.   26  b1  ---  Virt.   41  a2   0.05150 X
     Occ.   27  a1  ---  Virt.   37  b2   0.08938 X
     Occ.   29  a2  ---  Virt.   38  b1  -0.95087 X
  ----------------------------------------------------------------------------
  Root  94 singlet a2             0.633029207 a.u.               17.2256 eV 
  ----------------------------------------------------------------------------
     Transition Moments    X  0.00000   Y  0.00000   Z -0.00000
     Transition Moments   XX  0.00000  XY  0.07770  XZ -0.00000
     Transition Moments   YY  0.00000  YZ -0.00000  ZZ -0.00000
     Dipole Oscillator Strength                         0.00000

     Occ.   24  b1  ---  Virt.   37  b2   0.07808 X
     Occ.   24  b1  ---  Virt.   40  b2   0.13307 X
     Occ.   25  a2  ---  Virt.   36  a1  -0.94583 X
     Occ.   25  a2  ---  Virt.   39  a1  -0.28026 X
  ----------------------------------------------------------------------------
  Root  95 singlet b1             0.638462995 a.u.               17.3735 eV 
  ----------------------------------------------------------------------------
     Transition Moments    X  0.04305   Y -0.00000   Z -0.00000
     Transition Moments   XX -0.00000  XY -0.00000  XZ  0.10904
     Transition Moments   YY  0.00000  YZ  0.00000  ZZ -0.00000
     Dipole Oscillator Strength                         0.00079

     Occ.   24  b1  ---  Virt.   36  a1   0.93955 X
     Occ.   24  b1  ---  Virt.   39  a1   0.27056 X
     Occ.   25  a2  ---  Virt.   37  b2  -0.07089 X
     Occ.   25  a2  ---  Virt.   40  b2  -0.18385 X
  ----------------------------------------------------------------------------
  Root  96 singlet a2             0.645018771 a.u.               17.5519 eV 
  ----------------------------------------------------------------------------
     Transition Moments    X  0.00000   Y  0.00000   Z  0.00000
     Transition Moments   XX -0.00000  XY  2.43039  XZ  0.00000
     Transition Moments   YY -0.00000  YZ -0.00000  ZZ  0.00000
     Dipole Oscillator Strength                         0.00000

     Occ.   17  b2  ---  Virt.   38  b1   0.19267 X
     Occ.   28  a1  ---  Virt.   41  a2   0.97905 X
  ----------------------------------------------------------------------------
  Root  97 singlet b1             0.646410469 a.u.               17.5897 eV 
  ----------------------------------------------------------------------------
     Transition Moments    X -0.46470   Y -0.00000   Z  0.00000
     Transition Moments   XX -0.00000  XY  0.00000  XZ  0.94666
     Transition Moments   YY -0.00000  YZ  0.00000  ZZ  0.00000
     Dipole Oscillator Strength                         0.09306

     Occ.   15  b2  ---  Virt.   44  a2   0.06043 X
     Occ.   16  a1  ---  Virt.   35  b1   0.90835 X
     Occ.   19  a2  ---  Virt.   37  b2   0.05853 X
     Occ.   26  b1  ---  Virt.   36  a1  -0.12150 X
     Occ.   27  a1  ---  Virt.   38  b1   0.09646 X
     Occ.   29  a2  ---  Virt.   40  b2  -0.35159 X
     Occ.   29  a2  ---  Virt.   43  b2   0.06690 X
  ----------------------------------------------------------------------------
  Root  98 singlet b1             0.647741571 a.u.               17.6260 eV 
  ----------------------------------------------------------------------------
     Transition Moments    X  0.20165   Y -0.00000   Z -0.00000
     Transition Moments   XX  0.00000  XY  0.00000  XZ -0.42572
     Transition Moments   YY  0.00000  YZ  0.00000  ZZ -0.00000
     Dipole Oscillator Strength                         0.01756

     Occ.   16  a1  ---  Virt.   35  b1  -0.37763 X
     Occ.   26  b1  ---  Virt.   36  a1  -0.27145 X
     Occ.   26  b1  ---  Virt.   39  a1  -0.09901 X
     Occ.   27  a1  ---  Virt.   38  b1   0.13296 X
     Occ.   29  a2  ---  Virt.   37  b2  -0.08817 X
     Occ.   29  a2  ---  Virt.   40  b2  -0.86137 X
  ----------------------------------------------------------------------------
  Root  99 singlet b1             0.648916793 a.u.               17.6579 eV 
  ----------------------------------------------------------------------------
     Transition Moments    X -0.02100   Y  0.00000   Z  0.00000
     Transition Moments   XX -0.00000  XY  0.00000  XZ  0.05304
     Transition Moments   YY -0.00000  YZ -0.00000  ZZ  0.00000
     Dipole Oscillator Strength                         0.00019

     Occ.   26  b1  ---  Virt.   36  a1   0.05252 X
     Occ.   27  a1  ---  Virt.   38  b1  -0.97902 X
     Occ.   29  a2  ---  Virt.   40  b2  -0.18566 X
  ----------------------------------------------------------------------------
  Root 100 singlet a1             0.649245397 a.u.               17.6669 eV 
  ----------------------------------------------------------------------------
     Transition Moments    X -0.00000   Y -0.00000   Z -0.21031
     Transition Moments   XX  1.40670  XY  0.00000  XZ  0.00000
     Transition Moments   YY  2.32882  YZ -0.00000  ZZ -1.74982
     Dipole Oscillator Strength                         0.01914

     Occ.   15  b2  ---  Virt.   34  b2  -0.10034 X
     Occ.   18  b1  ---  Virt.   35  b1   0.52306 X
     Occ.   21  b2  ---  Virt.   34  b2   0.05255 X
     Occ.   23  b1  ---  Virt.   38  b1   0.11247 X
     Occ.   30  a2  ---  Virt.   41  a2   0.06882 X
     Occ.   31  a1  ---  Virt.   45  a1   0.16651 X
     Occ.   31  a1  ---  Virt.   46  a1  -0.05166 X
     Occ.   32  a1  ---  Virt.   45  a1  -0.79140 X
     Occ.   32  a1  ---  Virt.   46  a1   0.05341 X
     Occ.   32  a1  ---  Virt.   52  a1  -0.06501 X
     Occ.   32  a1  ---  Virt.   53  a1   0.08473 X
     Occ.   32  a1  ---  Virt.   56  a1  -0.05954 X

              Target root =      1
          Target symmetry = none
      Ground state energy =   -553.893793326557
        Excitation energy =      0.256438991548
     Excited state energy =   -553.637354335009


 Task  times  cpu:     4616.5s     wall:     4617.2s


                                NWChem Input Module
                                -------------------


 Summary of allocated global arrays
-----------------------------------
  No active global arrays



                         GA Statistics for process    0
                         ------------------------------

       create   destroy   get      put      acc     scatter   gather  read&inc
calls: 8332     8332     4.26e+07 1.25e+07 2.16e+07 4645        0     2558     
number of processes/call 1.00e+00 1.00e+00 1.00e+00 0.00e+00 0.00e+00
bytes total:             2.59e+11 6.95e+10 5.21e+10 1.31e+05 0.00e+00 2.05e+04
bytes remote:            0.00e+00 0.00e+00 0.00e+00 0.00e+00 0.00e+00 0.00e+00
Max memory consumed for GA by this process: 494772224 bytes

MA_summarize_allocated_blocks: starting scan ...
MA_summarize_allocated_blocks: scan completed: 0 heap blocks, 0 stack blocks
MA usage statistics:

	allocation statistics:
					      heap	     stack
					      ----	     -----
	current number of blocks	         0	         0
	maximum number of blocks	        20	        51
	current total bytes		         0	         0
	maximum total bytes		   8858472	  73301512
	maximum total K-bytes		      8859	     73302
	maximum total M-bytes		         9	        74


                                     CITATION
                                     --------
                Please cite the following reference when publishing
                           results obtained with NWChem:

                 M. Valiev, E.J. Bylaska, N. Govind, K. Kowalski,
              T.P. Straatsma, H.J.J. van Dam, D. Wang, J. Nieplocha,
                        E. Apra, T.L. Windus, W.A. de Jong
                 "NWChem: a comprehensive and scalable open-source
                  solution for large scale molecular simulations"
                      Comput. Phys. Commun. 181, 1477 (2010)
                           doi:10.1016/j.cpc.2010.04.018

                                      AUTHORS
                                      -------
          E. Apra, E. J. Bylaska, W. A. de Jong, N. Govind, K. Kowalski,
       T. P. Straatsma, M. Valiev, H. J. J. van Dam, D. Wang, T. L. Windus,
        J. Hammond, J. Autschbach, K. Bhaskaran-Nair, J. Brabec, K. Lopata,
       S. A. Fischer, S. Krishnamoorthy, W. Ma, M. Klemm, O. Villa, Y. Chen,
    V. Anisimov, F. Aquino, S. Hirata, M. T. Hackler, T. Risthaus, M. Malagoli,
       A. Marenich, A. Otero-de-la-Roza, J. Mullin, P. Nichols, R. Peverati,
     J. Pittner, Y. Zhao, P.-D. Fan, A. Fonari, M. Williamson, R. J. Harrison,
       J. R. Rehr, M. Dupuis, D. Silverstein, D. M. A. Smith, J. Nieplocha,
        V. Tipparaju, M. Krishnan, B. E. Van Kuiken, A. Vazquez-Mayagoitia,
        L. Jensen, M. Swart, Q. Wu, T. Van Voorhis, A. A. Auer, M. Nooijen,
      L. D. Crosby, E. Brown, G. Cisneros, G. I. Fann, H. Fruchtl, J. Garza,
        K. Hirao, R. A. Kendall, J. A. Nichols, K. Tsemekhman, K. Wolinski,
     J. Anchell, D. E. Bernholdt, P. Borowski, T. Clark, D. Clerc, H. Dachsel,
   M. J. O. Deegan, K. Dyall, D. Elwood, E. Glendening, M. Gutowski, A. C. Hess,
         J. Jaffe, B. G. Johnson, J. Ju, R. Kobayashi, R. Kutteh, Z. Lin,
   R. Littlefield, X. Long, B. Meng, T. Nakajima, S. Niu, L. Pollack, M. Rosing,
   K. Glaesemann, G. Sandrone, M. Stave, H. Taylor, G. Thomas, J. H. van Lenthe,
                               A. T. Wong, Z. Zhang.

 Total times  cpu:     4616.6s     wall:     4617.2s
